10
Lattice="0.0 3.038 0.0 -1.3884676958353632 0.0 5.63753434203479 6.1165 -1.519 0.0" Properties=species:S:1:pos:R:3:spacegroup_kinds:I:1:aims_pw-lda_light_forces:R:3 spacegroup="C 2/m" unit_cell=primitive occupancy="_JSON {\"0\": {\"Ga\": 1}, \"1\": {\"O\": 1}, \"2\": {\"O\": 1}, \"3\": {\"Ga\": 1}, \"4\": {\"O\": 1}}" _ConfigSet_loc=" / 0" aims_pw-lda_light_energy=-224645.731289374 aims_pw-lda_light_stress="0.02038362 0.02531785 0.01807803 -3e-08 -0.00692609 4e-08" pbc="T T T"
Ga       0.69654292       0.00000000       1.66194512        0      -0.08591105      -0.00000484      -0.17445882
Ga       4.03148938       1.51900000       3.97558922        0       0.08591112       0.00000381       0.17445907
O        1.21319627      -0.00000000       3.38872189        1      -0.20407389      -0.00000110       1.22975277
O        3.51483604       1.51900000       2.24881245        1       0.20407386       0.00000279      -1.22975288
O        2.01713160      -0.00000000       0.35798343        2       0.47894817       0.00000057      -0.47473087
O        2.71090070       1.51900000       5.27955091        2      -0.47894811      -0.00000142       0.47473083
Ga       3.91850775      -0.00000000       1.04689013        3      -0.14204425       0.00000279       0.34835190
Ga       0.80952456       1.51900000       4.59064421        3       0.14204406      -0.00000184      -0.34835197
O       -0.28715615       1.51900000       1.37950465        4      -0.34947621      -0.00000596      -0.09184560
O        5.01518845       0.00000000       4.25802969        4       0.34947629       0.00000519       0.09184557
