20
Lattice="12.233 0.0 0.0 0.0 3.038 0.0 -1.3884676958353632 0.0 5.63753434203479" Properties=species:S:1:pos:R:3:spacegroup_kinds:I:1:aims_pw-lda_light_forces:R:3 spacegroup="C 2/m" unit_cell=conventional occupancy="_JSON {\"0\": {\"Ga\": 1}, \"1\": {\"O\": 1}, \"2\": {\"O\": 1}, \"3\": {\"Ga\": 1}, \"4\": {\"O\": 1}}" _ConfigSet_loc=" / 0" aims_pw-lda_light_energy=-449291.461109807 aims_pw-lda_light_stress="0.02043079 0.02531974 0.01811671 -2e-08 -0.0069227 -5e-08" pbc="T T T"
Ga       0.69654292       0.00000000       1.66194512        0      -0.08584546       0.00000773      -0.17438080
Ga      10.14798938       0.00000000       3.97558922        0       0.08584560       0.00000195       0.17438082
Ga       6.81304292       1.51900000       1.66194512        0      -0.08584523      -0.00000415      -0.17438086
Ga       4.03148938       1.51900000       3.97558922        0       0.08584522      -0.00000997       0.17438090
O        1.21319627       0.00000000       3.38872189        1      -0.20435533      -0.00000537       1.22979844
O        9.63133604       0.00000000       2.24881245        1       0.20435535      -0.00000375      -1.22979850
O        7.32969627       1.51900000       3.38872189        1      -0.20435533      -0.00000078       1.22979844
O        3.51483604       1.51900000       2.24881245        1       0.20435535       0.00001128      -1.22979850
O        2.01713160       0.00000000       0.35798343        2       0.47883052      -0.00003075      -0.47470259
O        8.82740070       0.00000000       5.27955091        2      -0.47883041      -0.00001437       0.47470260
O        8.13363160       1.51900000       0.35798343        2       0.47883052       0.00002406      -0.47470259
O        2.71090070       1.51900000       5.27955091        2      -0.47883041       0.00002640       0.47470260
Ga       3.91850775       0.00000000       1.04689013        3      -0.14195974       0.00001799       0.34850641
Ga       6.92602456       0.00000000       4.59064421        3       0.14195977       0.00000991      -0.34850637
Ga      10.03500775       1.51900000       1.04689013        3      -0.14195989      -0.00001202       0.34850631
Ga       0.80952456       1.51900000       4.59064421        3       0.14195920      -0.00001726      -0.34850635
O        5.82934385       0.00000000       1.37950465        4      -0.34948830       0.00000256      -0.09173052
O        5.01518845       0.00000000       4.25802969        4       0.34948842       0.00000019       0.09173054
O       -0.28715615       1.51900000       1.37950465        4      -0.34948830       0.00000018      -0.09173052
O       11.13168845       1.51900000       4.25802969        4       0.34948842      -0.00000383       0.09173054
